
                                 *****************
                                 * O   R   C   A *
                                 *****************

                                            #,                                       
                                            ###                                      
                                            ####                                     
                                            #####                                    
                                            ######                                   
                                           ########,                                 
                                     ,,################,,,,,                         
                               ,,#################################,,                 
                          ,,##########################################,,             
                       ,#########################################, ''#####,          
                    ,#############################################,,   '####,        
                  ,##################################################,,,,####,       
                ,###########''''           ''''###############################       
              ,#####''   ,,,,##########,,,,          '''####'''          '####       
            ,##' ,,,,###########################,,,                        '##       
           ' ,,###''''                  '''############,,,                           
         ,,##''                                '''############,,,,        ,,,,,,###''
      ,#''                                            '''#######################'''  
     '                                                          ''''####''''         
             ,#######,   #######,   ,#######,      ##                                
            ,#'     '#,  ##    ##  ,#'     '#,    #''#        ######   ,####,        
            ##       ##  ##   ,#'  ##            #'  '#       #        #'  '#        
            ##       ##  #######   ##           ,######,      #####,   #    #        
            '#,     ,#'  ##    ##  '#,     ,#' ,#      #,         ##   #,  ,#        
             '#######'   ##     ##  '#######'  #'      '#     #####' # '####'        



                  #######################################################
                  #                        -***-                        #
                  #          Department of theory and spectroscopy      #
                  #    Directorship and core code : Frank Neese         #
                  #        Max Planck Institute fuer Kohlenforschung    #
                  #                Kaiser Wilhelm Platz 1               #
                  #                 D-45470 Muelheim/Ruhr               #
                  #                      Germany                        #
                  #                                                     #
                  #                  All rights reserved                #
                  #                        -***-                        #
                  #######################################################


                         Program Version 5.0.3 -  RELEASE  -


 With contributions from (in alphabetic order):
   Daniel Aravena         : Magnetic Suceptibility
   Michael Atanasov       : Ab Initio Ligand Field Theory (pilot matlab implementation)
   Alexander A. Auer      : GIAO ZORA, VPT2 properties, NMR spectrum
   Ute Becker             : Parallelization
   Giovanni Bistoni       : ED, misc. LED, open-shell LED, HFLD
   Martin Brehm           : Molecular dynamics
   Dmytro Bykov           : SCF Hessian
   Vijay G. Chilkuri      : MRCI spin determinant printing, contributions to CSF-ICE
   Dipayan Datta          : RHF DLPNO-CCSD density
   Achintya Kumar Dutta   : EOM-CC, STEOM-CC
   Dmitry Ganyushin       : Spin-Orbit,Spin-Spin,Magnetic field MRCI
   Miquel Garcia          : C-PCM and meta-GGA Hessian, CC/C-PCM, Gaussian charge scheme
   Yang Guo               : DLPNO-NEVPT2, F12-NEVPT2, CIM, IAO-localization
   Andreas Hansen         : Spin unrestricted coupled pair/coupled cluster methods
   Benjamin Helmich-Paris : MC-RPA, TRAH-SCF, COSX integrals
   Lee Huntington         : MR-EOM, pCC
   Robert Izsak           : Overlap fitted RIJCOSX, COSX-SCS-MP3, EOM
   Marcus Kettner         : VPT2
   Christian Kollmar      : KDIIS, OOCD, Brueckner-CCSD(T), CCSD density, CASPT2, CASPT2-K
   Simone Kossmann        : Meta GGA functionals, TD-DFT gradient, OOMP2, MP2 Hessian
   Martin Krupicka        : Initial AUTO-CI
   Lucas Lang             : DCDCAS
   Marvin Lechner         : AUTO-CI (C++ implementation), FIC-MRCC
   Dagmar Lenk            : GEPOL surface, SMD
   Dimitrios Liakos       : Extrapolation schemes; Compound Job, initial MDCI parallelization
   Dimitrios Manganas     : Further ROCIS development; embedding schemes
   Dimitrios Pantazis     : SARC Basis sets
   Anastasios Papadopoulos: AUTO-CI, single reference methods and gradients
   Taras Petrenko         : DFT Hessian,TD-DFT gradient, ASA, ECA, R-Raman, ABS, FL, XAS/XES, NRVS
   Peter Pinski           : DLPNO-MP2, DLPNO-MP2 Gradient
   Christoph Reimann      : Effective Core Potentials
   Marius Retegan         : Local ZFS, SOC
   Christoph Riplinger    : Optimizer, TS searches, QM/MM, DLPNO-CCSD(T), (RO)-DLPNO pert. Triples
   Tobias Risthaus        : Range-separated hybrids, TD-DFT gradient, RPA, STAB
   Michael Roemelt        : Original ROCIS implementation
   Masaaki Saitow         : Open-shell DLPNO-CCSD energy and density
   Barbara Sandhoefer     : DKH picture change effects
   Avijit Sen             : IP-ROCIS
   Kantharuban Sivalingam : CASSCF convergence, NEVPT2, FIC-MRCI
   Bernardo de Souza      : ESD, SOC TD-DFT
   Georgi Stoychev        : AutoAux, RI-MP2 NMR, DLPNO-MP2 response
   Willem Van den Heuvel  : Paramagnetic NMR
   Boris Wezisla          : Elementary symmetry handling
   Frank Wennmohs         : Technical directorship


 We gratefully acknowledge several colleagues who have allowed us to
 interface, adapt or use parts of their codes:
   Stefan Grimme, W. Hujo, H. Kruse, P. Pracht,  : VdW corrections, initial TS optimization,
                  C. Bannwarth, S. Ehlert          DFT functionals, gCP, sTDA/sTD-DF
   Ed Valeev, F. Pavosevic, A. Kumar             : LibInt (2-el integral package), F12 methods
   Garnet Chan, S. Sharma, J. Yang, R. Olivares  : DMRG
   Ulf Ekstrom                                   : XCFun DFT Library
   Mihaly Kallay                                 : mrcc  (arbitrary order and MRCC methods)
   Jiri Pittner, Ondrej Demel                    : Mk-CCSD
   Frank Weinhold                                : gennbo (NPA and NBO analysis)
   Christopher J. Cramer and Donald G. Truhlar   : smd solvation model
   Lars Goerigk                                  : TD-DFT with DH, B97 family of functionals
   V. Asgeirsson, H. Jonsson                     : NEB implementation
   FAccTs GmbH                                   : IRC, NEB, NEB-TS, DLPNO-Multilevel, CI-OPT
                                                   MM, QMMM, 2- and 3-layer-ONIOM, Crystal-QMMM,
                                                   LR-CPCM, SF, NACMEs, symmetry and pop. for TD-DFT,
                                                   nearIR, NL-DFT gradient (VV10), updates on ESD,
                                                   ML-optimized integration grids
   S Lehtola, MJT Oliveira, MAL Marques          : LibXC Library
   Liviu Ungur et al                             : ANISO software


 Your calculation uses the libint2 library for the computation of 2-el integrals
 For citations please refer to: http://libint.valeyev.net

 Your ORCA version has been built with support for libXC version: 5.1.0
 For citations please refer to: https://tddft.org/programs/libxc/

 This ORCA versions uses:
   CBLAS   interface :  Fast vector & matrix operations
   LAPACKE interface :  Fast linear algebra routines
   SCALAPACK package :  Parallel linear algebra routines
   Shared memory     :  Shared parallel matrices
   BLAS/LAPACK       :  OpenBLAS 0.3.15  USE64BITINT DYNAMIC_ARCH NO_AFFINITY Zen SINGLE_THREADED
        Core in use  :  Zen
   Copyright (c) 2011-2014, The OpenBLAS Project


================================================================================

----- Orbital basis set information -----
Your calculation utilizes the basis: def2-SVP
   F. Weigend and R. Ahlrichs, Phys. Chem. Chem. Phys. 7, 3297 (2005).

================================================================================
                                        WARNINGS
                       Please study these warnings very carefully!
================================================================================

WARNING: Old DensityContainer found on disk!
         Will remove this file - 
         If you want to keep old densities, please start your calculation with a different basename. 


WARNING: Geometry Optimization
  ===> : Switching off AutoStart
         For restart on a previous wavefunction, please use MOREAD

INFO   : the flag for use of the SHARK integral package has been found!

================================================================================
                                       INPUT FILE
================================================================================
NAME = ./water.inp
|  1> !HF DEF2-SVP OPT FREQ
|  2> * xyz 0 1
|  3> O   0.0000   0.0000   0.0626
|  4> H  -0.7920   0.0000  -0.4973
|  5> H   0.7920   0.0000  -0.4973
|  6> **                         ****END OF INPUT****
================================================================================

                       *****************************
                       * Geometry Optimization Run *
                       *****************************

Geometry optimization settings:
Update method            Update   .... BFGS
Choice of coordinates    CoordSys .... Z-matrix Internals
Initial Hessian          InHess   .... Almoef's Model

Convergence Tolerances:
Energy Change            TolE     ....  5.0000e-06 Eh
Max. Gradient            TolMAXG  ....  3.0000e-04 Eh/bohr
RMS Gradient             TolRMSG  ....  1.0000e-04 Eh/bohr
Max. Displacement        TolMAXD  ....  4.0000e-03 bohr
RMS Displacement         TolRMSD  ....  2.0000e-03 bohr
Strict Convergence                ....  False
------------------------------------------------------------------------------
                        ORCA OPTIMIZATION COORDINATE SETUP
------------------------------------------------------------------------------

The optimization will be done in new redundant internal coordinates
Making redundant internal coordinates   ...  (new redundants) done
Evaluating the initial hessian          ...  (Almloef) done
Evaluating the coordinates              ...  done
Calculating the B-matrix                .... done
Calculating the G-matrix                .... done
Diagonalizing the G-matrix              .... done
The first mode is                       ....    0
The number of degrees of freedom        ....    3

    -----------------------------------------------------------------
                    Redundant Internal Coordinates


    -----------------------------------------------------------------
         Definition                    Initial Value    Approx d2E/dq
    -----------------------------------------------------------------
      1. B(H   1,O   0)                  0.9699         0.501342   
      2. B(H   2,O   0)                  0.9699         0.501342   
      3. A(H   1,O   0,H   2)          109.4836         0.318023   
    -----------------------------------------------------------------

Number of atoms                         .... 3
Number of degrees of freedom            .... 3

         *************************************************************
         *                GEOMETRY OPTIMIZATION CYCLE   1            *
         *************************************************************
---------------------------------
CARTESIAN COORDINATES (ANGSTROEM)
---------------------------------
  O      0.000000    0.000000    0.062600
  H     -0.792000    0.000000   -0.497300
  H      0.792000    0.000000   -0.497300

----------------------------
CARTESIAN COORDINATES (A.U.)
----------------------------
  NO LB      ZA    FRAG     MASS         X           Y           Z
   0 O     8.0000    0    15.999    0.000000    0.000000    0.118297
   1 H     1.0000    0     1.008   -1.496663    0.000000   -0.939761
   2 H     1.0000    0     1.008    1.496663    0.000000   -0.939761

--------------------------------
INTERNAL COORDINATES (ANGSTROEM)
--------------------------------
 O      0   0   0     0.000000000000     0.00000000     0.00000000
 H      1   0   0     0.969923713495     0.00000000     0.00000000
 H      1   2   0     0.969923713495   109.48362320     0.00000000

---------------------------
INTERNAL COORDINATES (A.U.)
---------------------------
 O      0   0   0     0.000000000000     0.00000000     0.00000000
 H      1   0   0     1.832890189302     0.00000000     0.00000000
 H      1   2   0     1.832890189302   109.48362320     0.00000000

---------------------
BASIS SET INFORMATION
---------------------
There are 2 groups of distinct atoms

 Group   1 Type O   : 7s4p1d contracted to 3s2p1d pattern {511/31/1}
 Group   2 Type H   : 4s1p contracted to 2s1p pattern {31/1}

Atom   0O    basis set group =>   1
Atom   1H    basis set group =>   2
Atom   2H    basis set group =>   2
------------------------------------------------------------------------------
                           ORCA GTO INTEGRAL CALCULATION
------------------------------------------------------------------------------
------------------------------------------------------------------------------
                   ___                                                        
                  /   \      - P O W E R E D   B Y -                         
                 /     \                                                     
                 |  |  |   _    _      __       _____    __    __             
                 |  |  |  | |  | |    /  \     |  _  \  |  |  /  |          
                  \  \/   | |  | |   /    \    | | | |  |  | /  /          
                 / \  \   | |__| |  /  /\  \   | |_| |  |  |/  /          
                |  |  |   |  __  | /  /__\  \  |    /   |      \           
                |  |  |   | |  | | |   __   |  |    \   |  |\   \          
                \     /   | |  | | |  |  |  |  | |\  \  |  | \   \       
                 \___/    |_|  |_| |__|  |__|  |_| \__\ |__|  \__/        
                                                                              
                      - O R C A' S   B I G   F R I E N D -                    
                                      &                                       
                       - I N T E G R A L  F E E D E R -                       
                                                                              
 v1 FN, 2020, v2 2021                                                         
------------------------------------------------------------------------------


Reading SHARK input file ./water.SHARKINP.tmp ... ok
----------------------
SHARK INTEGRAL PACKAGE
----------------------

Number of atoms                             ...      3
Number of basis functions                   ...     24
Number of shells                            ...     12
Maximum angular momentum                    ...      2
Integral batch strategy                     ... SHARK/LIBINT Hybrid
RI-J (if used) integral strategy            ... SPLIT-RIJ (Revised 2003 algorithm where possible)
Printlevel                                  ...      1
Contraction scheme used                     ... SEGMENTED contraction
Coulomb Range Separation                    ... NOT USED
Exchange Range Separation                   ... NOT USED
Finite Nucleus Model                        ... NOT USED
Auxiliary Coulomb fitting basis             ... NOT available
Auxiliary J/K fitting basis                 ... NOT available
Auxiliary Correlation fitting basis         ... NOT available
Auxiliary 'external' fitting basis          ... NOT available
Integral threshold                          ...     2.500000e-11
Primitive cut-off                           ...     2.500000e-12
Primitive pair pre-selection threshold      ...     2.500000e-12

Calculating pre-screening integrals         ... done (  0.0 sec) Dimension = 12
Organizing shell pair data                  ... done (  0.0 sec)
Shell pair information
Total number of shell pairs                 ...        78
Shell pairs after pre-screening             ...        78
Total number of primitive shell pairs       ...       272
Primitive shell pairs kept                  ...       265
          la=0 lb=0:     28 shell pairs
          la=1 lb=0:     28 shell pairs
          la=1 lb=1:     10 shell pairs
          la=2 lb=0:      7 shell pairs
          la=2 lb=1:      4 shell pairs
          la=2 lb=2:      1 shell pairs

Calculating one electron integrals          ... done (  0.0 sec)
Calculating Nuclear repulsion               ... done (  0.0 sec) ENN=      9.063459269773 Eh

SHARK setup successfully completed in   0.2 seconds

Maximum memory used throughout the entire GTOINT-calculation: 6.7 MB
-------------------------------------------------------------------------------
                                 ORCA SCF
-------------------------------------------------------------------------------

------------
SCF SETTINGS
------------
Hamiltonian:
 Ab initio Hamiltonian  Method          .... Hartree-Fock(GTOs)


General Settings:
 Integral files         IntName         .... ./water
 Hartree-Fock type      HFTyp           .... RHF
 Total Charge           Charge          ....    0
 Multiplicity           Mult            ....    1
 Number of Electrons    NEL             ....   10
 Basis Dimension        Dim             ....   24
 Nuclear Repulsion      ENuc            ....      9.0634592698 Eh

Convergence Acceleration:
 DIIS                   CNVDIIS         .... on
   Start iteration      DIISMaxIt       ....    12
   Startup error        DIISStart       ....  0.200000
   # of expansion vecs  DIISMaxEq       ....     5
   Bias factor          DIISBfac        ....   1.050
   Max. coefficient     DIISMaxC        ....  10.000
 Trust-Rad. Augm. Hess. CNVTRAH         .... auto
   Auto Start mean grad. ratio tolernc. ....  1.125000
   Auto Start start iteration           ....    20
   Auto Start num. interpolation iter.  ....    10
   Max. Number of Micro iterations      ....    16
   Max. Number of Macro iterations      .... Maxiter - #DIIS iter
   Number of Davidson start vectors     ....     2
   Converg. threshold I  (grad. norm)   ....   1.000e-05
   Converg. threshold II (energy diff.) ....   1.000e-08
   Grad. Scal. Fac. for Micro threshold ....   0.100
   Minimum threshold for Micro iter.    ....   0.010
   NR start threshold (gradient norm)   ....   0.001
   Initial trust radius                 ....   0.400
   Minimum AH scaling param. (alpha)    ....   1.000
   Maximum AH scaling param. (alpha)    .... 1000.000
   Orbital update algorithm             .... Taylor
   White noise on init. David. guess    .... on
   Maximum white noise                  ....   0.010
   Quad. conv. algorithm                .... NR
 SOSCF                  CNVSOSCF        .... on
   Start iteration      SOSCFMaxIt      ....   150
   Startup grad/error   SOSCFStart      ....  0.003300
 Level Shifting         CNVShift        .... on
   Level shift para.    LevelShift      ....    0.2500
   Turn off err/grad.   ShiftErr        ....    0.0010
 Zerner damping         CNVZerner       .... off
 Static damping         CNVDamp         .... on
   Fraction old density DampFac         ....    0.7000
   Max. Damping (<1)    DampMax         ....    0.9800
   Min. Damping (>=0)   DampMin         ....    0.0000
   Turn off err/grad.   DampErr         ....    0.1000
 Fernandez-Rico         CNVRico         .... off

SCF Procedure:
 Maximum # iterations   MaxIter         ....   125
 SCF integral mode      SCFMode         .... Direct
   Integral package                     .... SHARK and LIBINT hybrid scheme
 Reset frequency        DirectResetFreq ....    20
 Integral Threshold     Thresh          ....  2.500e-11 Eh
 Primitive CutOff       TCut            ....  2.500e-12 Eh

Convergence Tolerance:
 Convergence Check Mode ConvCheckMode   .... Total+1el-Energy
 Convergence forced     ConvForced      .... 0
 Energy Change          TolE            ....  1.000e-08 Eh
 1-El. energy change                    ....  1.000e-05 Eh
 Orbital Gradient       TolG            ....  1.000e-05
 Orbital Rotation angle TolX            ....  1.000e-05
 DIIS Error             TolErr          ....  5.000e-07


Diagonalization of the overlap matrix:
Smallest eigenvalue                        ... 3.975e-02
Time for diagonalization                   ...    0.001 sec
Threshold for overlap eigenvalues          ... 1.000e-08
Number of eigenvalues below threshold      ... 0
Time for construction of square roots      ...    0.002 sec
Total time needed                          ...    0.002 sec

Time for model grid setup =    0.025 sec

------------------------------
INITIAL GUESS: MODEL POTENTIAL
------------------------------
Loading Hartree-Fock densities                     ... done
Calculating cut-offs                               ... done
Initializing the effective Hamiltonian             ... done
Setting up the integral package (SHARK)            ... done
Starting the Coulomb interaction                   ... done (   0.0 sec)
Reading the grid                                   ... done
Mapping shells                                     ... done
Starting the XC term evaluation                    ... done (   0.0 sec)
Transforming the Hamiltonian                       ... done (   0.0 sec)
Diagonalizing the Hamiltonian                      ... done (   0.0 sec)
Back transforming the eigenvectors                 ... done (   0.0 sec)
Now organizing SCF variables                       ... done
                      ------------------
                      INITIAL GUESS DONE (   0.1 sec)
                      ------------------
--------------
SCF ITERATIONS
--------------
ITER       Energy         Delta-E        Max-DP      RMS-DP      [F,P]     Damp
               ***  Starting incremental Fock matrix formation  ***
  0    -75.8667281177   0.000000000000 0.06533207  0.00635603  0.3163782 0.7000
  1    -75.9030783014  -0.036350183743 0.04514096  0.00429071  0.1920523 0.7000
                               ***Turning on DIIS***
  2    -75.9224656897  -0.019387388298 0.02646995  0.00235153  0.1073998 0.7000
  3    -76.0897840120  -0.167318322251 0.04322464  0.00320965  0.0601679 0.0000
  4    -75.9405543392   0.149229672835 0.00893331  0.00070308  0.0136400 0.0000
                      *** Initiating the SOSCF procedure ***
                           *** Shutting down DIIS ***
                      *** Re-Reading the Fockian *** 
                      *** Removing any level shift *** 
ITER      Energy       Delta-E        Grad      Rot      Max-DP    RMS-DP
  5    -75.96149594  -0.0209415985  0.001378  0.001378  0.002014  0.000215
               *** Restarting incremental Fock matrix formation ***
  6    -75.95933725   0.0021586904  0.000564  0.000772  0.000753  0.000095
  7    -75.95933977  -0.0000025215  0.000283  0.000558  0.000712  0.000071
  8    -75.95934030  -0.0000005317  0.000079  0.000043  0.000109  0.000008
  9    -75.95934031  -0.0000000104  0.000025  0.000015  0.000031  0.000002
 10    -75.95934031  -0.0000000025  0.000004  0.000005  0.000009  0.000001
                 **** Energy Check signals convergence ****
              ***Rediagonalizing the Fockian in SOSCF/NRSCF***

               *****************************************************
               *                     SUCCESS                       *
               *           SCF CONVERGED AFTER  11 CYCLES          *
               *****************************************************


----------------
TOTAL SCF ENERGY
----------------

Total Energy       :          -75.95934031 Eh           -2066.95873 eV

Components:
Nuclear Repulsion  :            9.06345927 Eh             246.62927 eV
Electronic Energy  :          -85.02279958 Eh           -2313.58800 eV
One Electron Energy:         -122.82581381 Eh           -3342.26031 eV
Two Electron Energy:           37.80301422 Eh            1028.67231 eV

Virial components:
Potential Energy   :         -151.67621685 Eh           -4127.31969 eV
Kinetic Energy     :           75.71687654 Eh            2060.36096 eV
Virial Ratio       :            2.00320224


---------------
SCF CONVERGENCE
---------------

  Last Energy change         ...   -1.5280e-10  Tolerance :   1.0000e-08
  Last MAX-Density change    ...    3.4745e-06  Tolerance :   1.0000e-07
  Last RMS-Density change    ...    2.8322e-07  Tolerance :   5.0000e-09
  Last Orbital Gradient      ...    1.2737e-06  Tolerance :   1.0000e-05
  Last Orbital Rotation      ...    1.9826e-06  Tolerance :   1.0000e-05

             **** THE GBW FILE WAS UPDATED (./water.gbw) ****
             **** DENSITY ./water.scfp WAS UPDATED ****
             **** ENERGY FILE WAS UPDATED (./water.en.tmp) ****
             **** THE GBW FILE WAS UPDATED (./water.gbw) ****
             **** DENSITY ./water.scfp WAS UPDATED ****
----------------
ORBITAL ENERGIES
----------------

  NO   OCC          E(Eh)            E(eV) 
   0   2.0000     -20.544851      -559.0538 
   1   2.0000      -1.308357       -35.6022 
   2   2.0000      -0.705596       -19.2002 
   3   2.0000      -0.555949       -15.1281 
   4   2.0000      -0.495137       -13.4734 
   5   0.0000       0.174994         4.7618 
   6   0.0000       0.253030         6.8853 
   7   0.0000       0.804603        21.8944 
   8   0.0000       0.833965        22.6933 
   9   0.0000       1.185306        32.2538 
  10   0.0000       1.203410        32.7465 
  11   0.0000       1.265971        34.4488 
  12   0.0000       1.332041        36.2467 
  13   0.0000       1.579827        42.9893 
  14   0.0000       1.728087        47.0236 
  15   0.0000       1.832010        49.8515 
  16   0.0000       2.014217        54.8096 
  17   0.0000       2.549043        69.3630 
  18   0.0000       2.570780        69.9545 
  19   0.0000       3.287944        89.4695 
  20   0.0000       3.392435        92.3129 
  21   0.0000       3.515846        95.6710 
  22   0.0000       3.935287       107.0846 
  23   0.0000       4.187539       113.9487 

                    ********************************
                    * MULLIKEN POPULATION ANALYSIS *
                    ********************************

-----------------------
MULLIKEN ATOMIC CHARGES
-----------------------
   0 O :   -0.376200
   1 H :    0.188100
   2 H :    0.188100
Sum of atomic charges:   -0.0000000

--------------------------------
MULLIKEN REDUCED ORBITAL CHARGES
--------------------------------
  0 O s       :     3.689071  s :     3.689071
      pz      :     1.565827  p :     4.676294
      px      :     1.147846
      py      :     1.962620
      dz2     :     0.001013  d :     0.010836
      dxz     :     0.007896
      dyz     :     0.000980
      dx2y2   :     0.000948
      dxy     :     0.000000
  1 H s       :     0.739114  s :     0.739114
      pz      :     0.021096  p :     0.072786
      px      :     0.033489
      py      :     0.018200
  2 H s       :     0.739114  s :     0.739114
      pz      :     0.021096  p :     0.072786
      px      :     0.033489
      py      :     0.018200


                     *******************************
                     * LOEWDIN POPULATION ANALYSIS *
                     *******************************

----------------------
LOEWDIN ATOMIC CHARGES
----------------------
   0 O :   -0.171810
   1 H :    0.085905
   2 H :    0.085905

-------------------------------
LOEWDIN REDUCED ORBITAL CHARGES
-------------------------------
  0 O s       :     3.426085  s :     3.426085
      pz      :     1.609612  p :     4.725996
      px      :     1.221224
      py      :     1.895160
      dz2     :     0.000401  d :     0.019728
      dxz     :     0.015394
      dyz     :     0.000279
      dx2y2   :     0.003654
      dxy     :     0.000000
  1 H s       :     0.735949  s :     0.735949
      pz      :     0.058130  p :     0.178146
      px      :     0.067736
      py      :     0.052280
  2 H s       :     0.735949  s :     0.735949
      pz      :     0.058130  p :     0.178146
      px      :     0.067736
      py      :     0.052280


                      *****************************
                      * MAYER POPULATION ANALYSIS *
                      *****************************

  NA   - Mulliken gross atomic population
  ZA   - Total nuclear charge
  QA   - Mulliken gross atomic charge
  VA   - Mayer's total valence
  BVA  - Mayer's bonded valence
  FA   - Mayer's free valence

  ATOM       NA         ZA         QA         VA         BVA        FA
  0 O      8.3762     8.0000    -0.3762     1.9755     1.9755    -0.0000
  1 H      0.8119     1.0000     0.1881     0.9955     0.9955    -0.0000
  2 H      0.8119     1.0000     0.1881     0.9955     0.9955    -0.0000

  Mayer bond orders larger than 0.100000
B(  0-O ,  1-H ) :   0.9878 B(  0-O ,  2-H ) :   0.9878 

-------
TIMINGS
-------

Total SCF time: 0 days 0 hours 0 min 0 sec 

Total time                  ....       0.471 sec
Sum of individual times     ....       0.248 sec  ( 52.7%)

Fock matrix formation       ....       0.179 sec  ( 38.0%)
Diagonalization             ....       0.001 sec  (  0.3%)
Density matrix formation    ....       0.000 sec  (  0.0%)
Population analysis         ....       0.002 sec  (  0.3%)
Initial guess               ....       0.040 sec  (  8.5%)
Orbital Transformation      ....       0.000 sec  (  0.0%)
Orbital Orthonormalization  ....       0.000 sec  (  0.0%)
DIIS solution               ....       0.001 sec  (  0.1%)
SOSCF solution              ....       0.001 sec  (  0.2%)

Maximum memory used throughout the entire SCF-calculation: 224.4 MB

-------------------------   --------------------
FINAL SINGLE POINT ENERGY       -75.959340313471
-------------------------   --------------------

------------------------------------------------------------------------------
                         ORCA SCF GRADIENT CALCULATION
------------------------------------------------------------------------------

Gradient of the Hartree-Fock SCF energy:
Hartree-Fock type                ... RHF
Number of operators              ...    1
Number of atoms                  ...    3
Basis set dimensions             ...   24
Integral neglect threshold       ... 2.5e-11
Integral primitive cutoff        ... 2.5e-12
SHARK Integral package           ... ON

Nuc. rep. gradient       (SHARK) ... done (  0.0 sec)
HCore & Overlap gradient (SHARK) ... done (  0.0 sec)
Two-Electron gradient    (SHARK) ... done (  0.1 sec)

------------------
CARTESIAN GRADIENT
------------------

   1   O   :   -0.000000000    0.000000000    0.020261433
   2   H   :   -0.028518048   -0.000000000   -0.010130716
   3   H   :    0.028518048   -0.000000000   -0.010130716

Difference to translation invariance:
           :   -0.0000000000    0.0000000000    0.0000000000

Difference to rotation invariance:
           :   -0.0000000000   -0.0000000000    0.0000000000

Norm of the cartesian gradient     ...    0.0473534218
RMS gradient                       ...    0.0157844739
MAX gradient                       ...    0.0285180475

-------
TIMINGS
-------

Total SCF gradient time            ...        0.358 sec

One electron gradient       ....       0.003 sec  (  1.0%)
Two electron gradient       ....       0.129 sec  ( 36.0%)

Maximum memory used throughout the entire SCFGRAD-calculation: 12.3 MB
------------------------------------------------------------------------------
                         ORCA GEOMETRY RELAXATION STEP
------------------------------------------------------------------------------

Reading the OPT-File                    .... done
Getting information on internals        .... done
Copying old internal coords+grads       .... done
Making the new internal coordinates     .... (new redundants).... done
Validating the new internal coordinates .... (new redundants).... done
Calculating the B-matrix                .... done
Calculating the G,G- and P matrices     .... done
Transforming gradient to internals      .... done
Projecting the internal gradient        .... done
Number of atoms                         ....   3
Number of internal coordinates          ....   3
Current Energy                          ....   -75.959340313 Eh
Current gradient norm                   ....     0.047353422 Eh/bohr
Maximum allowed component of the step   ....  0.300
Current trust radius                    ....  0.300
Evaluating the initial hessian          ....  (Almloef) done
Projecting the Hessian                  .... done
Forming the augmented Hessian           .... done
Diagonalizing the augmented Hessian     .... done
Last element of RFO vector              ....  0.995619657
Lowest eigenvalues of augmented Hessian:
 -0.004058701  0.318709966  0.501342000
Length of the computed step             ....  0.093907329
The final length of the internal step   ....  0.093907329
Converting the step to cartesian space:
 Initial RMS(Int)=    0.0542174217
Transforming coordinates:
 Iter   0:  RMS(Cart)=    0.0338161011 RMS(Int)=    0.0542927852
 Iter   1:  RMS(Cart)=    0.0004257760 RMS(Int)=    0.0009940455
 Iter   2:  RMS(Cart)=    0.0000127420 RMS(Int)=    0.0000337356
 Iter   3:  RMS(Cart)=    0.0000002727 RMS(Int)=    0.0000006153
 Iter   4:  RMS(Cart)=    0.0000000049 RMS(Int)=    0.0000000077
done
Storing new coordinates                 .... done

                                .--------------------.
          ----------------------|Geometry convergence|-------------------------
          Item                value                   Tolerance       Converged
          ---------------------------------------------------------------------
          RMS gradient        0.0253180512            0.0001000000      NO
          MAX gradient        0.0291347467            0.0003000000      NO
          RMS step            0.0542174217            0.0020000000      NO
          MAX step            0.0576468269            0.0040000000      NO
          ........................................................
          Max(Bonds)      0.0305      Max(Angles)    2.67
          Max(Dihed)        0.00      Max(Improp)    0.00
          ---------------------------------------------------------------------

The optimization has not yet converged - more geometry cycles are needed


    ---------------------------------------------------------------------------
                         Redundant Internal Coordinates
                            (Angstroem and degrees)

        Definition                    Value    dE/dq     Step     New-Value
    ----------------------------------------------------------------------------
     1. B(H   1,O   0)                0.9699  0.029135 -0.0305    0.9394   
     2. B(H   2,O   0)                0.9699  0.029135 -0.0305    0.9394   
     3. A(H   1,O   0,H   2)          109.48  0.015011   -2.67    106.81   
    ----------------------------------------------------------------------------

         *************************************************************
         *                GEOMETRY OPTIMIZATION CYCLE   2            *
         *************************************************************
---------------------------------
CARTESIAN COORDINATES (ANGSTROEM)
---------------------------------
  O     -0.000000    0.000000    0.062678
  H     -0.754246    0.000000   -0.497339
  H      0.754246    0.000000   -0.497339

----------------------------
CARTESIAN COORDINATES (A.U.)
----------------------------
  NO LB      ZA    FRAG     MASS         X           Y           Z
   0 O     8.0000    0    15.999   -0.000000    0.000000    0.118445
   1 H     1.0000    0     1.008   -1.425318    0.000000   -0.939835
   2 H     1.0000    0     1.008    1.425318    0.000000   -0.939835

--------------------------------
INTERNAL COORDINATES (ANGSTROEM)
--------------------------------
 O      0   0   0     0.000000000000     0.00000000     0.00000000
 H      1   0   0     0.939418326438     0.00000000     0.00000000
 H      1   2   0     0.939418326438   106.81320152     0.00000000

---------------------------
INTERNAL COORDINATES (A.U.)
---------------------------
 O      0   0   0     0.000000000000     0.00000000     0.00000000
 H      1   0   0     1.775243362155     0.00000000     0.00000000
 H      1   2   0     1.775243362155   106.81320152     0.00000000

------------------------------------------------------------------------------
                   ___                                                        
                  /   \      - P O W E R E D   B Y -                         
                 /     \                                                     
                 |  |  |   _    _      __       _____    __    __             
                 |  |  |  | |  | |    /  \     |  _  \  |  |  /  |          
                  \  \/   | |  | |   /    \    | | | |  |  | /  /          
                 / \  \   | |__| |  /  /\  \   | |_| |  |  |/  /          
                |  |  |   |  __  | /  /__\  \  |    /   |      \           
                |  |  |   | |  | | |   __   |  |    \   |  |\   \          
                \     /   | |  | | |  |  |  |  | |\  \  |  | \   \       
                 \___/    |_|  |_| |__|  |__|  |_| \__\ |__|  \__/        
                                                                              
                      - O R C A' S   B I G   F R I E N D -                    
                                      &                                       
                       - I N T E G R A L  F E E D E R -                       
                                                                              
 v1 FN, 2020, v2 2021                                                         
------------------------------------------------------------------------------


Reading SHARK input file ./water.SHARKINP.tmp ... ok
----------------------
SHARK INTEGRAL PACKAGE
----------------------

Number of atoms                             ...      3
Number of basis functions                   ...     24
Number of shells                            ...     12
Maximum angular momentum                    ...      2
Integral batch strategy                     ... SHARK/LIBINT Hybrid
RI-J (if used) integral strategy            ... SPLIT-RIJ (Revised 2003 algorithm where possible)
Printlevel                                  ...      1
Contraction scheme used                     ... SEGMENTED contraction
Coulomb Range Separation                    ... NOT USED
Exchange Range Separation                   ... NOT USED
Finite Nucleus Model                        ... NOT USED
Auxiliary Coulomb fitting basis             ... NOT available
Auxiliary J/K fitting basis                 ... NOT available
Auxiliary Correlation fitting basis         ... NOT available
Auxiliary 'external' fitting basis          ... NOT available
Integral threshold                          ...     2.500000e-11
Primitive cut-off                           ...     2.500000e-12
Primitive pair pre-selection threshold      ...     2.500000e-12

Calculating pre-screening integrals         ... done (  0.0 sec) Dimension = 12
Organizing shell pair data                  ... done (  0.0 sec)
Shell pair information
Total number of shell pairs                 ...        78
Shell pairs after pre-screening             ...        78
Total number of primitive shell pairs       ...       272
Primitive shell pairs kept                  ...       265
          la=0 lb=0:     28 shell pairs
          la=1 lb=0:     28 shell pairs
          la=1 lb=1:     10 shell pairs
          la=2 lb=0:      7 shell pairs
          la=2 lb=1:      4 shell pairs
          la=2 lb=2:      1 shell pairs

Calculating one electron integrals          ... done (  0.0 sec)
Calculating Nuclear repulsion               ... done (  0.0 sec) ENN=      9.363647626522 Eh

SHARK setup successfully completed in   0.1 seconds

Maximum memory used throughout the entire GTOINT-calculation: 6.7 MB

Diagonalization of the overlap matrix:
Smallest eigenvalue                        ... 3.669e-02
Time for diagonalization                   ...    0.000 sec
Threshold for overlap eigenvalues          ... 1.000e-08
Number of eigenvalues below threshold      ... 0
Time for construction of square roots      ...    0.001 sec
Total time needed                          ...    0.002 sec

--------------
SCF ITERATIONS
--------------
ITER       Energy         Delta-E        Max-DP      RMS-DP      [F,P]     Damp
               ***  Starting incremental Fock matrix formation  ***
  0    -75.9605012083   0.000000000000 0.00463229  0.00056582  0.0126759 0.7000
                      *** Initiating the SOSCF procedure ***
                      *** Re-Reading the Fockian *** 
                      *** Removing any level shift *** 
ITER      Energy       Delta-E        Grad      Rot      Max-DP    RMS-DP
  1    -75.96068770  -0.0001864941  0.001862  0.001862  0.013424  0.001565
               *** Restarting incremental Fock matrix formation ***
  2    -75.96118343  -0.0004957323  0.002640  0.001275  0.003231  0.000365
  3    -75.96120747  -0.0000240377  0.000817  0.001122  0.001319  0.000148
  4    -75.96121097  -0.0000034973  0.000205  0.000105  0.000243  0.000031
  5    -75.96121117  -0.0000001970  0.000048  0.000090  0.000105  0.000014
  6    -75.96121119  -0.0000000212  0.000009  0.000013  0.000021  0.000002
                 **** Energy Check signals convergence ****
              ***Rediagonalizing the Fockian in SOSCF/NRSCF***

               *****************************************************
               *                     SUCCESS                       *
               *           SCF CONVERGED AFTER   7 CYCLES          *
               *****************************************************

Total Energy       :          -75.96121119 Eh           -2067.00964 eV
  Last Energy change         ...   -6.0423e-10  Tolerance :   1.0000e-08
  Last MAX-Density change    ...    4.6951e-06  Tolerance :   1.0000e-07
             **** THE GBW FILE WAS UPDATED (./water.gbw) ****
             **** DENSITY ./water.scfp WAS UPDATED ****
             **** ENERGY FILE WAS UPDATED (./water.en.tmp) ****
             **** THE GBW FILE WAS UPDATED (./water.gbw) ****
             **** DENSITY ./water.scfp WAS UPDATED ****
Total SCF time: 0 days 0 hours 0 min 0 sec 

Maximum memory used throughout the entire SCF-calculation: 224.4 MB

-------------------------   --------------------
FINAL SINGLE POINT ENERGY       -75.961211188467
-------------------------   --------------------

------------------------------------------------------------------------------
                         ORCA SCF GRADIENT CALCULATION
------------------------------------------------------------------------------

Gradient of the Hartree-Fock SCF energy:
Hartree-Fock type                ... RHF
Number of operators              ...    1
Number of atoms                  ...    3
Basis set dimensions             ...   24
Integral neglect threshold       ... 2.5e-11
Integral primitive cutoff        ... 2.5e-12
SHARK Integral package           ... ON

Nuc. rep. gradient       (SHARK) ... done (  0.0 sec)
HCore & Overlap gradient (SHARK) ... done (  0.0 sec)
Two-Electron gradient    (SHARK) ... done (  0.0 sec)

------------------
CARTESIAN GRADIENT
------------------

   1   O   :   -0.000000000    0.000000000   -0.011075232
   2   H   :    0.003223881    0.000000000    0.005537616
   3   H   :   -0.003223881   -0.000000000    0.005537616

Difference to translation invariance:
           :    0.0000000000    0.0000000000    0.0000000000

Difference to rotation invariance:
           :   -0.0000000000   -0.0000000000   -0.0000000000

Norm of the cartesian gradient     ...    0.0143100649
RMS gradient                       ...    0.0047700216
MAX gradient                       ...    0.0110752320

-------
TIMINGS
-------

Total SCF gradient time            ...        0.055 sec

One electron gradient       ....       0.002 sec  (  4.5%)
Two electron gradient       ....       0.020 sec  ( 36.6%)

Maximum memory used throughout the entire SCFGRAD-calculation: 12.3 MB
------------------------------------------------------------------------------
                         ORCA GEOMETRY RELAXATION STEP
------------------------------------------------------------------------------

Reading the OPT-File                    .... done
Getting information on internals        .... done
Copying old internal coords+grads       .... done
Making the new internal coordinates     .... (new redundants).... done
Validating the new internal coordinates .... (new redundants).... done
Calculating the B-matrix                .... done
Calculating the G,G- and P matrices     .... done
Transforming gradient to internals      .... done
Projecting the internal gradient        .... done
Number of atoms                         ....   3
Number of internal coordinates          ....   3
Current Energy                          ....   -75.961211188 Eh
Current gradient norm                   ....     0.014310065 Eh/bohr
Maximum allowed component of the step   ....  0.300
Current trust radius                    ....  0.300
Updating the Hessian (BFGS)             .... done
Forming the augmented Hessian           .... done
Diagonalizing the augmented Hessian     .... done
Last element of RFO vector              ....  0.999823954
Lowest eigenvalues of augmented Hessian:
 -0.000166718  0.284289116  0.501342000
Length of the computed step             ....  0.018766572
The final length of the internal step   ....  0.018766572
Converting the step to cartesian space:
 Initial RMS(Int)=    0.0108348854
Transforming coordinates:
 Iter   0:  RMS(Cart)=    0.0041537587 RMS(Int)=    0.0108285747
 Iter   1:  RMS(Cart)=    0.0000343885 RMS(Int)=    0.0000533249
 Iter   2:  RMS(Cart)=    0.0000001791 RMS(Int)=    0.0000003534
 Iter   3:  RMS(Cart)=    0.0000000011 RMS(Int)=    0.0000000019
done
Storing new coordinates                 .... done

                                .--------------------.
          ----------------------|Geometry convergence|-------------------------
          Item                value                   Tolerance       Converged
          ---------------------------------------------------------------------
          Energy change      -0.0018708750            0.0000050000      NO
          RMS gradient        0.0054605890            0.0001000000      NO
          MAX gradient        0.0058895613            0.0003000000      NO
          RMS step            0.0108348854            0.0020000000      NO
          MAX step            0.0140223468            0.0040000000      NO
          ........................................................
          Max(Bonds)      0.0047      Max(Angles)    0.80
          Max(Dihed)        0.00      Max(Improp)    0.00
          ---------------------------------------------------------------------

The optimization has not yet converged - more geometry cycles are needed


    ---------------------------------------------------------------------------
                         Redundant Internal Coordinates
                            (Angstroem and degrees)

        Definition                    Value    dE/dq     Step     New-Value
    ----------------------------------------------------------------------------
     1. B(H   1,O   0)                0.9394 -0.005890  0.0047    0.9441   
     2. B(H   2,O   0)                0.9394 -0.005890  0.0047    0.9441   
     3. A(H   1,O   0,H   2)          106.81  0.004481   -0.80    106.01   
    ----------------------------------------------------------------------------

         *************************************************************
         *                GEOMETRY OPTIMIZATION CYCLE   3            *
         *************************************************************
---------------------------------
CARTESIAN COORDINATES (ANGSTROEM)
---------------------------------
  O      0.000000    0.000000    0.068067
  H     -0.754029    0.000000   -0.500033
  H      0.754029    0.000000   -0.500033

----------------------------
CARTESIAN COORDINATES (A.U.)
----------------------------
  NO LB      ZA    FRAG     MASS         X           Y           Z
   0 O     8.0000    0    15.999    0.000000    0.000000    0.128628
   1 H     1.0000    0     1.008   -1.424907    0.000000   -0.944926
   2 H     1.0000    0     1.008    1.424907    0.000000   -0.944926

--------------------------------
INTERNAL COORDINATES (ANGSTROEM)
--------------------------------
 O      0   0   0     0.000000000000     0.00000000     0.00000000
 H      1   0   0     0.944085267618     0.00000000     0.00000000
 H      1   2   0     0.944085267618   106.00978023     0.00000000

---------------------------
INTERNAL COORDINATES (A.U.)
---------------------------
 O      0   0   0     0.000000000000     0.00000000     0.00000000
 H      1   0   0     1.784062602868     0.00000000     0.00000000
 H      1   2   0     1.784062602868   106.00978023     0.00000000

------------------------------------------------------------------------------
                   ___                                                        
                  /   \      - P O W E R E D   B Y -                         
                 /     \                                                     
                 |  |  |   _    _      __       _____    __    __             
                 |  |  |  | |  | |    /  \     |  _  \  |  |  /  |          
                  \  \/   | |  | |   /    \    | | | |  |  | /  /          
                 / \  \   | |__| |  /  /\  \   | |_| |  |  |/  /          
                |  |  |   |  __  | /  /__\  \  |    /   |      \           
                |  |  |   | |  | | |   __   |  |    \   |  |\   \          
                \     /   | |  | | |  |  |  |  | |\  \  |  | \   \       
                 \___/    |_|  |_| |__|  |__|  |_| \__\ |__|  \__/        
                                                                              
                      - O R C A' S   B I G   F R I E N D -                    
                                      &                                       
                       - I N T E G R A L  F E E D E R -                       
                                                                              
 v1 FN, 2020, v2 2021                                                         
------------------------------------------------------------------------------


Reading SHARK input file ./water.SHARKINP.tmp ... ok
----------------------
SHARK INTEGRAL PACKAGE
----------------------

Number of atoms                             ...      3
Number of basis functions                   ...     24
Number of shells                            ...     12
Maximum angular momentum                    ...      2
Integral batch strategy                     ... SHARK/LIBINT Hybrid
RI-J (if used) integral strategy            ... SPLIT-RIJ (Revised 2003 algorithm where possible)
Printlevel                                  ...      1
Contraction scheme used                     ... SEGMENTED contraction
Coulomb Range Separation                    ... NOT USED
Exchange Range Separation                   ... NOT USED
Finite Nucleus Model                        ... NOT USED
Auxiliary Coulomb fitting basis             ... NOT available
Auxiliary J/K fitting basis                 ... NOT available
Auxiliary Correlation fitting basis         ... NOT available
Auxiliary 'external' fitting basis          ... NOT available
Integral threshold                          ...     2.500000e-11
Primitive cut-off                           ...     2.500000e-12
Primitive pair pre-selection threshold      ...     2.500000e-12

Calculating pre-screening integrals         ... done (  0.0 sec) Dimension = 12
Organizing shell pair data                  ... done (  0.0 sec)
Shell pair information
Total number of shell pairs                 ...        78
Shell pairs after pre-screening             ...        78
Total number of primitive shell pairs       ...       272
Primitive shell pairs kept                  ...       265
          la=0 lb=0:     28 shell pairs
          la=1 lb=0:     28 shell pairs
          la=1 lb=1:     10 shell pairs
          la=2 lb=0:      7 shell pairs
          la=2 lb=1:      4 shell pairs
          la=2 lb=2:      1 shell pairs

Calculating one electron integrals          ... done (  0.0 sec)
Calculating Nuclear repulsion               ... done (  0.0 sec) ENN=      9.319195157064 Eh

SHARK setup successfully completed in   0.1 seconds

Maximum memory used throughout the entire GTOINT-calculation: 6.7 MB

Diagonalization of the overlap matrix:
Smallest eigenvalue                        ... 3.687e-02
Time for diagonalization                   ...    0.000 sec
Threshold for overlap eigenvalues          ... 1.000e-08
Number of eigenvalues below threshold      ... 0
Time for construction of square roots      ...    0.001 sec
Total time needed                          ...    0.001 sec

--------------
SCF ITERATIONS
--------------
ITER       Energy         Delta-E        Max-DP      RMS-DP      [F,P]     Damp
               ***  Starting incremental Fock matrix formation  ***
                      *** Initiating the SOSCF procedure ***
                      *** Re-Reading the Fockian *** 
                      *** Removing any level shift *** 
ITER      Energy       Delta-E        Grad      Rot      Max-DP    RMS-DP
  0    -75.96129110 -75.9612910987  0.002420  0.002420  0.002881  0.000325
               *** Restarting incremental Fock matrix formation ***
  1    -75.96131431  -0.0000232160  0.000642  0.000509  0.000849  0.000120
  2    -75.96131733  -0.0000030146  0.000213  0.000424  0.000485  0.000062
  3    -75.96131770  -0.0000003711  0.000109  0.000050  0.000124  0.000012
  4    -75.96131774  -0.0000000352  0.000024  0.000013  0.000027  0.000003
  5    -75.96131774  -0.0000000021  0.000006  0.000010  0.000015  0.000001
                 **** Energy Check signals convergence ****
              ***Rediagonalizing the Fockian in SOSCF/NRSCF***

               *****************************************************
               *                     SUCCESS                       *
               *           SCF CONVERGED AFTER   6 CYCLES          *
               *****************************************************

Total Energy       :          -75.96131774 Eh           -2067.01254 eV
  Last Energy change         ...   -2.0754e-10  Tolerance :   1.0000e-08
  Last MAX-Density change    ...    1.2568e-06  Tolerance :   1.0000e-07
             **** THE GBW FILE WAS UPDATED (./water.gbw) ****
             **** DENSITY ./water.scfp WAS UPDATED ****
             **** ENERGY FILE WAS UPDATED (./water.en.tmp) ****
             **** THE GBW FILE WAS UPDATED (./water.gbw) ****
             **** DENSITY ./water.scfp WAS UPDATED ****
Total SCF time: 0 days 0 hours 0 min 0 sec 

Maximum memory used throughout the entire SCF-calculation: 224.4 MB

-------------------------   --------------------
FINAL SINGLE POINT ENERGY       -75.961317737912
-------------------------   --------------------

------------------------------------------------------------------------------
                         ORCA SCF GRADIENT CALCULATION
------------------------------------------------------------------------------

Gradient of the Hartree-Fock SCF energy:
Hartree-Fock type                ... RHF
Number of operators              ...    1
Number of atoms                  ...    3
Basis set dimensions             ...   24
Integral neglect threshold       ... 2.5e-11
Integral primitive cutoff        ... 2.5e-12
SHARK Integral package           ... ON

Nuc. rep. gradient       (SHARK) ... done (  0.0 sec)
HCore & Overlap gradient (SHARK) ... done (  0.0 sec)
Two-Electron gradient    (SHARK) ... done (  0.0 sec)

------------------
CARTESIAN GRADIENT
------------------

   1   O   :    0.000000000   -0.000000000   -0.003038042
   2   H   :   -0.000377229    0.000000000    0.001519021
   3   H   :    0.000377229   -0.000000000    0.001519021

Difference to translation invariance:
           :   -0.0000000000    0.0000000000    0.0000000000

Difference to rotation invariance:
           :    0.0000000000    0.0000000000   -0.0000000000

Norm of the cartesian gradient     ...    0.0037588765
RMS gradient                       ...    0.0012529588
MAX gradient                       ...    0.0030380420

-------
TIMINGS
-------

Total SCF gradient time            ...        0.077 sec

One electron gradient       ....       0.004 sec  (  4.8%)
Two electron gradient       ....       0.029 sec  ( 37.6%)

Maximum memory used throughout the entire SCFGRAD-calculation: 12.3 MB
------------------------------------------------------------------------------
                         ORCA GEOMETRY RELAXATION STEP
------------------------------------------------------------------------------

Reading the OPT-File                    .... done
Getting information on internals        .... done
Copying old internal coords+grads       .... done
Making the new internal coordinates     .... (new redundants).... done
Validating the new internal coordinates .... (new redundants).... done
Calculating the B-matrix                .... done
Calculating the G,G- and P matrices     .... done
Transforming gradient to internals      .... done
Projecting the internal gradient        .... done
Number of atoms                         ....   3
Number of internal coordinates          ....   3
Current Energy                          ....   -75.961317738 Eh
Current gradient norm                   ....     0.003758877 Eh/bohr
Maximum allowed component of the step   ....  0.300
Current trust radius                    ....  0.300
Updating the Hessian (BFGS)             .... done
Forming the augmented Hessian           .... done
Diagonalizing the augmented Hessian     .... done
Last element of RFO vector              ....  0.999899437
Lowest eigenvalues of augmented Hessian:
 -0.000038119  0.188202074  0.501342000
Length of the computed step             ....  0.014182984
The final length of the internal step   ....  0.014182984
Converting the step to cartesian space:
 Initial RMS(Int)=    0.0081885495
Transforming coordinates:
 Iter   0:  RMS(Cart)=    0.0041144212 RMS(Int)=    0.0081867741
 Iter   1:  RMS(Cart)=    0.0000205116 RMS(Int)=    0.0000362925
 Iter   2:  RMS(Cart)=    0.0000000897 RMS(Int)=    0.0000002002
done
Storing new coordinates                 .... done

                                .--------------------.
          ----------------------|Geometry convergence|-------------------------
          Item                value                   Tolerance       Converged
          ---------------------------------------------------------------------
          Energy change      -0.0001065494            0.0000050000      NO
          RMS gradient        0.0015655688            0.0001000000      NO
          MAX gradient        0.0025694402            0.0003000000      NO
          RMS step            0.0081885495            0.0020000000      NO
          MAX step            0.0139218771            0.0040000000      NO
          ........................................................
          Max(Bonds)      0.0010      Max(Angles)    0.80
          Max(Dihed)        0.00      Max(Improp)    0.00
          ---------------------------------------------------------------------

The optimization has not yet converged - more geometry cycles are needed


    ---------------------------------------------------------------------------
                         Redundant Internal Coordinates
                            (Angstroem and degrees)

        Definition                    Value    dE/dq     Step     New-Value
    ----------------------------------------------------------------------------
     1. B(H   1,O   0)                0.9441 -0.000613  0.0010    0.9451   
     2. B(H   2,O   0)                0.9441 -0.000613  0.0010    0.9451   
     3. A(H   1,O   0,H   2)          106.01  0.002569   -0.80    105.21   
    ----------------------------------------------------------------------------

         *************************************************************
         *                GEOMETRY OPTIMIZATION CYCLE   4            *
         *************************************************************
---------------------------------
CARTESIAN COORDINATES (ANGSTROEM)
---------------------------------
  O     -0.000000    0.000000    0.071967
  H     -0.750861    0.000000   -0.501984
  H      0.750861    0.000000   -0.501984

----------------------------
CARTESIAN COORDINATES (A.U.)
----------------------------
  NO LB      ZA    FRAG     MASS         X           Y           Z
   0 O     8.0000    0    15.999   -0.000000    0.000000    0.135998
   1 H     1.0000    0     1.008   -1.418922    0.000000   -0.948612
   2 H     1.0000    0     1.008    1.418922    0.000000   -0.948612

--------------------------------
INTERNAL COORDINATES (ANGSTROEM)
--------------------------------
 O      0   0   0     0.000000000000     0.00000000     0.00000000
 H      1   0   0     0.945098911485     0.00000000     0.00000000
 H      1   2   0     0.945098911485   105.21211536     0.00000000

---------------------------
INTERNAL COORDINATES (A.U.)
---------------------------
 O      0   0   0     0.000000000000     0.00000000     0.00000000
 H      1   0   0     1.785978112175     0.00000000     0.00000000
 H      1   2   0     1.785978112175   105.21211536     0.00000000

------------------------------------------------------------------------------
                   ___                                                        
                  /   \      - P O W E R E D   B Y -                         
                 /     \                                                     
                 |  |  |   _    _      __       _____    __    __             
                 |  |  |  | |  | |    /  \     |  _  \  |  |  /  |          
                  \  \/   | |  | |   /    \    | | | |  |  | /  /          
                 / \  \   | |__| |  /  /\  \   | |_| |  |  |/  /          
                |  |  |   |  __  | /  /__\  \  |    /   |      \           
                |  |  |   | |  | | |   __   |  |    \   |  |\   \          
                \     /   | |  | | |  |  |  |  | |\  \  |  | \   \       
                 \___/    |_|  |_| |__|  |__|  |_| \__\ |__|  \__/        
                                                                              
                      - O R C A' S   B I G   F R I E N D -                    
                                      &                                       
                       - I N T E G R A L  F E E D E R -                       
                                                                              
 v1 FN, 2020, v2 2021                                                         
------------------------------------------------------------------------------


Reading SHARK input file ./water.SHARKINP.tmp ... ok
----------------------
SHARK INTEGRAL PACKAGE
----------------------

Number of atoms                             ...      3
Number of basis functions                   ...     24
Number of shells                            ...     12
Maximum angular momentum                    ...      2
Integral batch strategy                     ... SHARK/LIBINT Hybrid
RI-J (if used) integral strategy            ... SPLIT-RIJ (Revised 2003 algorithm where possible)
Printlevel                                  ...      1
Contraction scheme used                     ... SEGMENTED contraction
Coulomb Range Separation                    ... NOT USED
Exchange Range Separation                   ... NOT USED
Finite Nucleus Model                        ... NOT USED
Auxiliary Coulomb fitting basis             ... NOT available
Auxiliary J/K fitting basis                 ... NOT available
Auxiliary Correlation fitting basis         ... NOT available
Auxiliary 'external' fitting basis          ... NOT available
Integral threshold                          ...     2.500000e-11
Primitive cut-off                           ...     2.500000e-12
Primitive pair pre-selection threshold      ...     2.500000e-12

Calculating pre-screening integrals         ... done (  0.0 sec) Dimension = 12
Organizing shell pair data                  ... done (  0.0 sec)
Shell pair information
Total number of shell pairs                 ...        78
Shell pairs after pre-screening             ...        78
Total number of primitive shell pairs       ...       272
Primitive shell pairs kept                  ...       265
          la=0 lb=0:     28 shell pairs
          la=1 lb=0:     28 shell pairs
          la=1 lb=1:     10 shell pairs
          la=2 lb=0:      7 shell pairs
          la=2 lb=1:      4 shell pairs
          la=2 lb=2:      1 shell pairs

Calculating one electron integrals          ... done (  0.0 sec)
Calculating Nuclear repulsion               ... done (  0.0 sec) ENN=      9.311056655743 Eh

SHARK setup successfully completed in   0.1 seconds

Maximum memory used throughout the entire GTOINT-calculation: 6.7 MB

Diagonalization of the overlap matrix:
Smallest eigenvalue                        ... 3.677e-02
Time for diagonalization                   ...    0.001 sec
Threshold for overlap eigenvalues          ... 1.000e-08
Number of eigenvalues below threshold      ... 0
Time for construction of square roots      ...    0.002 sec
Total time needed                          ...    0.002 sec

--------------
SCF ITERATIONS
--------------
ITER       Energy         Delta-E        Max-DP      RMS-DP      [F,P]     Damp
               ***  Starting incremental Fock matrix formation  ***
                      *** Initiating the SOSCF procedure ***
                      *** Re-Reading the Fockian *** 
                      *** Removing any level shift *** 
ITER      Energy       Delta-E        Grad      Rot      Max-DP    RMS-DP
  0    -75.96132627 -75.9613262705  0.001247  0.001247  0.002149  0.000234
               *** Restarting incremental Fock matrix formation ***
  1    -75.96133691  -0.0000106417  0.000415  0.000287  0.000740  0.000082
  2    -75.96133814  -0.0000012254  0.000136  0.000163  0.000239  0.000033
  3    -75.96133825  -0.0000001132  0.000042  0.000025  0.000067  0.000005
  4    -75.96133826  -0.0000000046  0.000019  0.000010  0.000019  0.000002
  5    -75.96133826  -0.0000000009  0.000004  0.000005  0.000007  0.000001
                 **** Energy Check signals convergence ****
              ***Rediagonalizing the Fockian in SOSCF/NRSCF***

               *****************************************************
               *                     SUCCESS                       *
               *           SCF CONVERGED AFTER   6 CYCLES          *
               *****************************************************

Total Energy       :          -75.96133826 Eh           -2067.01310 eV
  Last Energy change         ...   -5.1855e-11  Tolerance :   1.0000e-08
  Last MAX-Density change    ...    8.1971e-07  Tolerance :   1.0000e-07
             **** THE GBW FILE WAS UPDATED (./water.gbw) ****
             **** DENSITY ./water.scfp WAS UPDATED ****
             **** ENERGY FILE WAS UPDATED (./water.en.tmp) ****
             **** THE GBW FILE WAS UPDATED (./water.gbw) ****
             **** DENSITY ./water.scfp WAS UPDATED ****
Total SCF time: 0 days 0 hours 0 min 0 sec 

Maximum memory used throughout the entire SCF-calculation: 224.4 MB

-------------------------   --------------------
FINAL SINGLE POINT ENERGY       -75.961338256388
-------------------------   --------------------

------------------------------------------------------------------------------
                         ORCA SCF GRADIENT CALCULATION
------------------------------------------------------------------------------

Gradient of the Hartree-Fock SCF energy:
Hartree-Fock type                ... RHF
Number of operators              ...    1
Number of atoms                  ...    3
Basis set dimensions             ...   24
Integral neglect threshold       ... 2.5e-11
Integral primitive cutoff        ... 2.5e-12
SHARK Integral package           ... ON

Nuc. rep. gradient       (SHARK) ... done (  0.0 sec)
HCore & Overlap gradient (SHARK) ... done (  0.0 sec)
Two-Electron gradient    (SHARK) ... done (  0.0 sec)

------------------
CARTESIAN GRADIENT
------------------

   1   O   :   -0.000000000   -0.000000000    0.000017663
   2   H   :   -0.000251804   -0.000000000   -0.000008831
   3   H   :    0.000251804    0.000000000   -0.000008831

Difference to translation invariance:
           :   -0.0000000000    0.0000000000   -0.0000000000

Difference to rotation invariance:
           :    0.0000000000    0.0000000000    0.0000000000

Norm of the cartesian gradient     ...    0.0003567616
RMS gradient                       ...    0.0001189205
MAX gradient                       ...    0.0002518044

-------
TIMINGS
-------

Total SCF gradient time            ...        0.076 sec

One electron gradient       ....       0.003 sec  (  4.5%)
Two electron gradient       ....       0.031 sec  ( 40.3%)

Maximum memory used throughout the entire SCFGRAD-calculation: 12.3 MB
------------------------------------------------------------------------------
                         ORCA GEOMETRY RELAXATION STEP
------------------------------------------------------------------------------

Reading the OPT-File                    .... done
Getting information on internals        .... done
Copying old internal coords+grads       .... done
Making the new internal coordinates     .... (new redundants).... done
Validating the new internal coordinates .... (new redundants).... done
Calculating the B-matrix                .... done
Calculating the G,G- and P matrices     .... done
Transforming gradient to internals      .... done
Projecting the internal gradient        .... done
Number of atoms                         ....   3
Number of internal coordinates          ....   3
Current Energy                          ....   -75.961338256 Eh
Current gradient norm                   ....     0.000356762 Eh/bohr
Maximum allowed component of the step   ....  0.300
Current trust radius                    ....  0.300
Updating the Hessian (BFGS)             .... done
Forming the augmented Hessian           .... done
Diagonalizing the augmented Hessian     .... done
Last element of RFO vector              ....  0.999998988
Lowest eigenvalues of augmented Hessian:
 -0.000000453  0.170799806  0.501342000
Length of the computed step             ....  0.001423026
The final length of the internal step   ....  0.001423026
Converting the step to cartesian space:
 Initial RMS(Int)=    0.0008215843
Transforming coordinates:
 Iter   0:  RMS(Cart)=    0.0004953340 RMS(Int)=    0.0008216039
 Iter   1:  RMS(Cart)=    0.0000001568 RMS(Int)=    0.0000003650
 Iter   2:  RMS(Cart)=    0.0000000001 RMS(Int)=    0.0000000002
done
Storing new coordinates                 .... done

                                .--------------------.
          ----------------------|Geometry convergence|-------------------------
          Item                value                   Tolerance       Converged
          ---------------------------------------------------------------------
          Energy change      -0.0000205185            0.0000050000      NO
          RMS gradient        0.0002253094            0.0001000000      NO
          MAX gradient        0.0002605786            0.0003000000      YES
          RMS step            0.0008215843            0.0020000000      YES
          MAX step            0.0013878864            0.0040000000      YES
          ........................................................
          Max(Bonds)      0.0001      Max(Angles)    0.08
          Max(Dihed)        0.00      Max(Improp)    0.00
          ---------------------------------------------------------------------

The optimization has not yet converged - more geometry cycles are needed


    ---------------------------------------------------------------------------
                         Redundant Internal Coordinates
                            (Angstroem and degrees)

        Definition                    Value    dE/dq     Step     New-Value
    ----------------------------------------------------------------------------
     1. B(H   1,O   0)                0.9451  0.000205 -0.0001    0.9450   
     2. B(H   2,O   0)                0.9451  0.000205 -0.0001    0.9450   
     3. A(H   1,O   0,H   2)          105.21  0.000261   -0.08    105.13   
    ----------------------------------------------------------------------------

         *************************************************************
         *                GEOMETRY OPTIMIZATION CYCLE   5            *
         *************************************************************
---------------------------------
CARTESIAN COORDINATES (ANGSTROEM)
---------------------------------
  O      0.000000    0.000000    0.072267
  H     -0.750369    0.000000   -0.502133
  H      0.750369    0.000000   -0.502133

----------------------------
CARTESIAN COORDINATES (A.U.)
----------------------------
  NO LB      ZA    FRAG     MASS         X           Y           Z
   0 O     8.0000    0    15.999    0.000000    0.000000    0.136565
   1 H     1.0000    0     1.008   -1.417992    0.000000   -0.948895
   2 H     1.0000    0     1.008    1.417992    0.000000   -0.948895

--------------------------------
INTERNAL COORDINATES (ANGSTROEM)
--------------------------------
 O      0   0   0     0.000000000000     0.00000000     0.00000000
 H      1   0   0     0.944981311679     0.00000000     0.00000000
 H      1   2   0     0.944981311679   105.13259533     0.00000000

---------------------------
INTERNAL COORDINATES (A.U.)
---------------------------
 O      0   0   0     0.000000000000     0.00000000     0.00000000
 H      1   0   0     1.785755880746     0.00000000     0.00000000
 H      1   2   0     1.785755880746   105.13259533     0.00000000

------------------------------------------------------------------------------
                   ___                                                        
                  /   \      - P O W E R E D   B Y -                         
                 /     \                                                     
                 |  |  |   _    _      __       _____    __    __             
                 |  |  |  | |  | |    /  \     |  _  \  |  |  /  |          
                  \  \/   | |  | |   /    \    | | | |  |  | /  /          
                 / \  \   | |__| |  /  /\  \   | |_| |  |  |/  /          
                |  |  |   |  __  | /  /__\  \  |    /   |      \           
                |  |  |   | |  | | |   __   |  |    \   |  |\   \          
                \     /   | |  | | |  |  |  |  | |\  \  |  | \   \       
                 \___/    |_|  |_| |__|  |__|  |_| \__\ |__|  \__/        
                                                                              
                      - O R C A' S   B I G   F R I E N D -                    
                                      &                                       
                       - I N T E G R A L  F E E D E R -                       
                                                                              
 v1 FN, 2020, v2 2021                                                         
------------------------------------------------------------------------------


Reading SHARK input file ./water.SHARKINP.tmp ... ok
----------------------
SHARK INTEGRAL PACKAGE
----------------------

Number of atoms                             ...      3
Number of basis functions                   ...     24
Number of shells                            ...     12
Maximum angular momentum                    ...      2
Integral batch strategy                     ... SHARK/LIBINT Hybrid
RI-J (if used) integral strategy            ... SPLIT-RIJ (Revised 2003 algorithm where possible)
Printlevel                                  ...      1
Contraction scheme used                     ... SEGMENTED contraction
Coulomb Range Separation                    ... NOT USED
Exchange Range Separation                   ... NOT USED
Finite Nucleus Model                        ... NOT USED
Auxiliary Coulomb fitting basis             ... NOT available
Auxiliary J/K fitting basis                 ... NOT available
Auxiliary Correlation fitting basis         ... NOT available
Auxiliary 'external' fitting basis          ... NOT available
Integral threshold                          ...     2.500000e-11
Primitive cut-off                           ...     2.500000e-12
Primitive pair pre-selection threshold      ...     2.500000e-12

Calculating pre-screening integrals         ... done (  0.0 sec) Dimension = 12
Organizing shell pair data                  ... done (  0.0 sec)
Shell pair information
Total number of shell pairs                 ...        78
Shell pairs after pre-screening             ...        78
Total number of primitive shell pairs       ...       272
Primitive shell pairs kept                  ...       265
          la=0 lb=0:     28 shell pairs
          la=1 lb=0:     28 shell pairs
          la=1 lb=1:     10 shell pairs
          la=2 lb=0:      7 shell pairs
          la=2 lb=1:      4 shell pairs
          la=2 lb=2:      1 shell pairs

Calculating one electron integrals          ... done (  0.0 sec)
Calculating Nuclear repulsion               ... done (  0.0 sec) ENN=      9.312402511196 Eh

SHARK setup successfully completed in   0.1 seconds

Maximum memory used throughout the entire GTOINT-calculation: 6.7 MB

Diagonalization of the overlap matrix:
Smallest eigenvalue                        ... 3.675e-02
Time for diagonalization                   ...    0.000 sec
Threshold for overlap eigenvalues          ... 1.000e-08
Number of eigenvalues below threshold      ... 0
Time for construction of square roots      ...    0.001 sec
Total time needed                          ...    0.001 sec

--------------
SCF ITERATIONS
--------------
ITER       Energy         Delta-E        Max-DP      RMS-DP      [F,P]     Damp
               ***  Starting incremental Fock matrix formation  ***
                      *** Initiating the SOSCF procedure ***
                      *** Re-Reading the Fockian *** 
                      *** Removing any level shift *** 
ITER      Energy       Delta-E        Grad      Rot      Max-DP    RMS-DP
  0    -75.96133837 -75.9613383731  0.000126  0.000126  0.000236  0.000025
               *** Restarting incremental Fock matrix formation ***
  1    -75.96133848  -0.0000001092  0.000045  0.000031  0.000076  0.000008
  2    -75.96133849  -0.0000000097  0.000011  0.000010  0.000022  0.000002
                  ***Gradient check signals convergence***
              ***Rediagonalizing the Fockian in SOSCF/NRSCF***

[...]
  0    -75.96133849 -75.9613384934  0.000007  0.000007  0.000010  0.000001
               *** Restarting incremental Fock matrix formation ***
  1    -75.96133849  -0.0000000003  0.000003  0.000001  0.000004  0.000000
                  ***Gradient check signals convergence***
              ***Rediagonalizing the Fockian in SOSCF/NRSCF***

               *****************************************************
               *                     SUCCESS                       *
               *           SCF CONVERGED AFTER   2 CYCLES          *
               *****************************************************


----------------
TOTAL SCF ENERGY
----------------

Total Energy       :          -75.96133849 Eh           -2067.01311 eV

Components:
Nuclear Repulsion  :            9.31261781 Eh             253.40921 eV
Electronic Energy  :          -85.27395630 Eh           -2320.42232 eV
One Electron Energy:         -123.25210525 Eh           -3353.86029 eV
Two Electron Energy:           37.97814895 Eh            1033.43797 eV

Virial components:
Potential Energy   :         -151.77730144 Eh           -4130.07034 eV
Kinetic Energy     :           75.81596295 Eh            2063.05724 eV
Virial Ratio       :            2.00191748


---------------
SCF CONVERGENCE
---------------

  Last Energy change         ...   -2.6361e-11  Tolerance :   1.0000e-08
  Last MAX-Density change    ...    1.2342e-06  Tolerance :   1.0000e-07
  Last RMS-Density change    ...    1.5470e-07  Tolerance :   5.0000e-09
  Last Orbital Gradient      ...    7.1523e-07  Tolerance :   1.0000e-05
  Last Orbital Rotation      ...    1.0666e-06  Tolerance :   1.0000e-05

             **** THE GBW FILE WAS UPDATED (./water.gbw) ****
             **** DENSITY ./water.scfp WAS UPDATED ****
             **** ENERGY FILE WAS UPDATED (./water.en.tmp) ****
             **** THE GBW FILE WAS UPDATED (./water.gbw) ****
             **** DENSITY ./water.scfp WAS UPDATED ****
----------------
ORBITAL ENERGIES
----------------

  NO   OCC          E(Eh)            E(eV) 
   0   2.0000     -20.543424      -559.0150 
   1   2.0000      -1.324872       -36.0516 
   2   2.0000      -0.711536       -19.3619 
   3   2.0000      -0.569235       -15.4897 
   4   2.0000      -0.498842       -13.5742 
   5   0.0000       0.178230         4.8499 
   6   0.0000       0.257095         6.9959 
   7   0.0000       0.806481        21.9455 
   8   0.0000       0.879486        23.9320 
   9   0.0000       1.183806        32.2130 
  10   0.0000       1.201859        32.7042 
  11   0.0000       1.267875        34.5006 
  12   0.0000       1.338884        36.4329 
  13   0.0000       1.598416        43.4951 
  14   0.0000       1.669946        45.4415 
  15   0.0000       1.814970        49.3879 
  16   0.0000       2.070667        56.3457 
  17   0.0000       2.597194        70.6733 
  18   0.0000       2.630484        71.5791 
  19   0.0000       3.335471        90.7628 
  20   0.0000       3.401415        92.5572 
  21   0.0000       3.586617        97.5968 
  22   0.0000       3.924716       106.7970 
  23   0.0000       4.243850       115.4810 

                    ********************************
                    * MULLIKEN POPULATION ANALYSIS *
                    ********************************

-----------------------
MULLIKEN ATOMIC CHARGES
-----------------------
   0 O :   -0.334420
   1 H :    0.167210
   2 H :    0.167210
Sum of atomic charges:   -0.0000000

--------------------------------
MULLIKEN REDUCED ORBITAL CHARGES
--------------------------------
  0 O s       :     3.668938  s :     3.668938
      pz      :     1.534032  p :     4.653250
      px      :     1.160300
      py      :     1.958917
      dz2     :     0.001362  d :     0.012233
      dxz     :     0.008856
      dyz     :     0.001112
      dx2y2   :     0.000902
      dxy     :     0.000000
  1 H s       :     0.755930  s :     0.755930
      pz      :     0.023258  p :     0.076859
      px      :     0.033617
      py      :     0.019985
  2 H s       :     0.755930  s :     0.755930
      pz      :     0.023258  p :     0.076859
      px      :     0.033617
      py      :     0.019985


                     *******************************
                     * LOEWDIN POPULATION ANALYSIS *
                     *******************************

----------------------
LOEWDIN ATOMIC CHARGES
----------------------
   0 O :   -0.141266
   1 H :    0.070633
   2 H :    0.070633

-------------------------------
LOEWDIN REDUCED ORBITAL CHARGES
-------------------------------
  0 O s       :     3.404766  s :     3.404766
      pz      :     1.594376  p :     4.714084
      px      :     1.236057
      py      :     1.883651
      dz2     :     0.000691  d :     0.022416
      dxz     :     0.017605
      dyz     :     0.000262
      dx2y2   :     0.003859
      dxy     :     0.000000
  1 H s       :     0.740011  s :     0.740011
      pz      :     0.064479  p :     0.189357
      px      :     0.066834
      py      :     0.058044
  2 H s       :     0.740011  s :     0.740011
      pz      :     0.064479  p :     0.189357
      px      :     0.066834
      py      :     0.058044


                      *****************************
                      * MAYER POPULATION ANALYSIS *
                      *****************************

  NA   - Mulliken gross atomic population
  ZA   - Total nuclear charge
  QA   - Mulliken gross atomic charge
  VA   - Mayer's total valence
  BVA  - Mayer's bonded valence
  FA   - Mayer's free valence

  ATOM       NA         ZA         QA         VA         BVA        FA
  0 O      8.3344     8.0000    -0.3344     2.0042     2.0042    -0.0000
  1 H      0.8328     1.0000     0.1672     1.0093     1.0093     0.0000
  2 H      0.8328     1.0000     0.1672     1.0093     1.0093     0.0000

  Mayer bond orders larger than 0.100000
B(  0-O ,  1-H ) :   1.0021 B(  0-O ,  2-H ) :   1.0021 

-------
TIMINGS
-------

Total SCF time: 0 days 0 hours 0 min 0 sec 

Total time                  ....       0.268 sec
Sum of individual times     ....       0.072 sec  ( 26.7%)

Fock matrix formation       ....       0.039 sec  ( 14.4%)
Diagonalization             ....       0.000 sec  (  0.1%)
Density matrix formation    ....       0.000 sec  (  0.0%)
Population analysis         ....       0.031 sec  ( 11.5%)
Initial guess               ....       0.001 sec  (  0.4%)
Orbital Transformation      ....       0.000 sec  (  0.0%)
Orbital Orthonormalization  ....       0.000 sec  (  0.1%)
DIIS solution               ....       0.000 sec  (  0.0%)
SOSCF solution              ....       0.001 sec  (  0.3%)

Maximum memory used throughout the entire SCF-calculation: 224.4 MB

-------------------------   --------------------
FINAL SINGLE POINT ENERGY       -75.961338493690
-------------------------   --------------------

                                *** OPTIMIZATION RUN DONE ***

                            ***************************************
                            *     ORCA property calculations      *
                            ***************************************

                                    ---------------------
                                    Active property flags
                                    ---------------------
   (+) Dipole Moment


------------------------------------------------------------------------------
                       ORCA ELECTRIC PROPERTIES CALCULATION
------------------------------------------------------------------------------

Dipole Moment Calculation                       ... on
Quadrupole Moment Calculation                   ... off
Polarizability Calculation                      ... off
GBWName                                         ... ./water.gbw
Electron density                                ... ./water.scfp
The origin for moment calculation is the CENTER OF MASS  = ( 0.000000,  0.000000  0.015089)

-------------
DIPOLE MOMENT
-------------
                                X             Y             Z
Electronic contribution:      0.00000      -0.00000       0.12622
Nuclear contribution   :     -0.00000       0.00000      -0.95621
                        -----------------------------------------
Total Dipole Moment    :     -0.00000      -0.00000      -0.82999
                        -----------------------------------------
Magnitude (a.u.)       :      0.82999
Magnitude (Debye)      :      2.10967



--------------------
Rotational spectrum 
--------------------
 
Rotational constants in cm-1:    28.538202    14.851934     9.768292 
Rotational constants in MHz : 855553.786525 445249.786536 292846.013579 

 Dipole components along the rotational axes: 
x,y,z [a.u.] :     0.000000    -0.829992     0.000000 
x,y,z [Debye]:     0.000000    -2.109673     0.000000 

 

-------------------------------------------------------------------------------
                               ORCA SCF HESSIAN
-------------------------------------------------------------------------------

                   --------- SHARK INITIALIZATION DONE ---------

Hessian of the Hartree-Fock SCF energy:
Hartree-Fock type                                ... RHF
Number of operators                              ...    1
Number of atoms                                  ...    3
Basis set dimensions                             ...   24
Integral neglect threshold                       ... 2.5e-11
Integral primitive cutoff                        ... 2.5e-12

Nuclear repulsion Hessian  (SHARK)               ... done   (      0.0 sec)

----------------------------------------------
Forming right-hand sides of CP-SCF equations     ...
----------------------------------------------
One electron integral derivatives  (SHARK)       ... done   (      0.0 sec)
Transforming the overlap derivative matrices     ... done   (      0.0 sec)
Making the Q(x) pseudodensities                  ... done   (      0.0 sec)
Adding the E*S(x)*S(y) terms to the Hessian      ... done   (      0.0 sec)
Calculating energy weighted overlap derivatives  ... done   (      0.0 sec)
Two electron integral derivatives (SHARK)        ... done   (      0.0 sec)
tr(F(y)Q(x)) contribution to the Hessian         ... done   (      0.0 sec)
Response fock operator R(S(x)) (SHARK)           ... done   (      0.2 sec)
tr(F(y)S(x)) contribution to the Hessian         ... done   (      0.0 sec)
Transforming and finalizing RHSs                 ... done   (      0.0 sec)

----------------------------------------------
Solving the CP-SCF equations                     ...
----------------------------------------------
     CP-SCF ITERATION   0:   4.9481e-02 (   0.0 sec   0/  9 done)
     CP-SCF ITERATION   1:   1.5264e-02 (   0.0 sec   0/  9 done)
     CP-SCF ITERATION   2:   3.3264e-03 (   0.0 sec   0/  9 done)
     CP-SCF ITERATION   3:   5.2849e-04 (   0.0 sec   2/  9 done)
     CP-SCF ITERATION   4:   8.1573e-05 (   0.0 sec   9/  9 done)
                    *** THE CP-SCF HAS CONVERGED ***

                                                 ... done   (      0.1 sec)
Forming perturbed density Hessian contributions  ... done   (      0.0 sec)
2nd integral derivative contribs (SHARK)         ... done   (      0.1 sec)
Dipole derivatives                               ... (center of mass:  0.000000,  0.000000  0.015089)done   (      0.1 sec)

Total SCF Hessian time: 0 days 0 hours 0 min 1 sec 

Writing the Hessian file to the disk             ... done


Maximum memory used throughout the entire SCFHESS-calculation: 50.7 MB

-----------------------
VIBRATIONAL FREQUENCIES
-----------------------

Scaling factor for frequencies =  1.000000000  (already applied!)

   0:         0.00 cm**-1
   1:         0.00 cm**-1
   2:         0.00 cm**-1
   3:         0.00 cm**-1
   4:         0.00 cm**-1
   5:         0.00 cm**-1
   6:      1750.37 cm**-1
   7:      4148.46 cm**-1
   8:      4244.70 cm**-1


------------
NORMAL MODES
------------

These modes are the Cartesian displacements weighted by the diagonal matrix
M(i,i)=1/sqrt(m[i]) where m[i] is the mass of the displaced atom
Thus, these vectors are normalized but *not* orthogonal

                  0          1          2          3          4          5    
      0       0.000000   0.000000   0.000000   0.000000   0.000000   0.000000
      1       0.000000   0.000000   0.000000   0.000000   0.000000   0.000000
      2       0.000000   0.000000   0.000000   0.000000   0.000000   0.000000
      3       0.000000   0.000000   0.000000   0.000000   0.000000   0.000000
      4       0.000000   0.000000   0.000000   0.000000   0.000000   0.000000
      5       0.000000   0.000000   0.000000   0.000000   0.000000   0.000000
      6       0.000000   0.000000   0.000000   0.000000   0.000000   0.000000
      7       0.000000   0.000000   0.000000   0.000000   0.000000   0.000000
      8       0.000000   0.000000   0.000000   0.000000   0.000000   0.000000
                  6          7          8    
      0      -0.000000   0.000000   0.070574
      1      -0.000000  -0.000000   0.000000
      2      -0.070167  -0.050564   0.000000
      3      -0.432968   0.581118  -0.560079
      4       0.000000   0.000000   0.000000
      5       0.556846   0.401277  -0.428744
      6       0.432968  -0.581118  -0.560079
      7       0.000000   0.000000   0.000000
      8       0.556846   0.401277   0.428744


-----------
IR SPECTRUM
-----------

 Mode   freq       eps      Int      T**2         TX        TY        TZ
       cm**-1   L/(mol*cm) km/mol    a.u.
----------------------------------------------------------------------------
  6:   1750.37   0.016353   82.64  0.002915  ( 0.000000  0.000000  0.053994)
  7:   4148.46   0.005313   26.85  0.000400  (-0.000000  0.000000  0.019992)
  8:   4244.70   0.014722   74.40  0.001082  (-0.032899 -0.000000  0.000000)

* The epsilon (eps) is given for a Dirac delta lineshape.
** The dipole moment derivative (T) already includes vibrational overlap.

The first frequency considered to be a vibration is 6
The total number of vibrations considered is 3


--------------------------
THERMOCHEMISTRY AT 298.15K
--------------------------

Temperature         ... 298.15 K
Pressure            ... 1.00 atm
Total Mass          ... 18.02 AMU

Throughout the following assumptions are being made:
  (1) The electronic state is orbitally nondegenerate
  (2) There are no thermally accessible electronically excited states
  (3) Hindered rotations indicated by low frequency modes are not
      treated as such but are treated as vibrations and this may
      cause some error
  (4) All equations used are the standard statistical mechanics
      equations for an ideal gas
  (5) All vibrations are strictly harmonic

freq.    1750.37  E(vib)   ...       0.00 
freq.    4148.46  E(vib)   ...       0.00 
freq.    4244.70  E(vib)   ...       0.00 

------------
INNER ENERGY
------------

The inner energy is: U= E(el) + E(ZPE) + E(vib) + E(rot) + E(trans)
    E(el)   - is the total energy from the electronic structure calculation
              = E(kin-el) + E(nuc-el) + E(el-el) + E(nuc-nuc)
    E(ZPE)  - the the zero temperature vibrational energy from the frequency calculation
    E(vib)  - the the finite temperature correction to E(ZPE) due to population
              of excited vibrational states
    E(rot)  - is the rotational thermal energy
    E(trans)- is the translational thermal energy

Summary of contributions to the inner energy U:
Electronic energy                ...    -75.96133849 Eh
Zero point energy                ...      0.02310867 Eh      14.50 kcal/mol
Thermal vibrational correction   ...      0.00000171 Eh       0.00 kcal/mol
Thermal rotational correction    ...      0.00141627 Eh       0.89 kcal/mol
Thermal translational correction ...      0.00141627 Eh       0.89 kcal/mol
-----------------------------------------------------------------------
Total thermal energy                    -75.93539557 Eh


Summary of corrections to the electronic energy:
(perhaps to be used in another calculation)
Total thermal correction                  0.00283426 Eh       1.78 kcal/mol
Non-thermal (ZPE) correction              0.02310867 Eh      14.50 kcal/mol
-----------------------------------------------------------------------
Total correction                          0.02594292 Eh      16.28 kcal/mol


--------
ENTHALPY
--------

The enthalpy is H = U + kB*T
                kB is Boltzmann's constant
Total free energy                 ...    -75.93539557 Eh 
Thermal Enthalpy correction       ...      0.00094421 Eh       0.59 kcal/mol
-----------------------------------------------------------------------
Total Enthalpy                    ...    -75.93445136 Eh


Note: Rotational entropy computed according to Herzberg 
Infrared and Raman Spectra, Chapter V,1, Van Nostrand Reinhold, 1945 
Point Group:  C2v, Symmetry Number:   2  
Rotational constants in cm-1:    28.538202    14.851934     9.768292 

Vibrational entropy computed according to the QRRHO of S. Grimme
Chem.Eur.J. 2012 18 9955


-------
ENTROPY
-------

The entropy contributions are T*S = T*(S(el)+S(vib)+S(rot)+S(trans))
     S(el)   - electronic entropy
     S(vib)  - vibrational entropy
     S(rot)  - rotational entropy
     S(trans)- translational entropy
The entropies will be listed as multiplied by the temperature to get
units of energy

Electronic entropy                ...      0.00000000 Eh      0.00 kcal/mol
Vibrational entropy               ...      0.00000191 Eh      0.00 kcal/mol
Rotational entropy                ...      0.00492454 Eh      3.09 kcal/mol
Translational entropy             ...      0.01644380 Eh     10.32 kcal/mol
-----------------------------------------------------------------------
Final entropy term                ...      0.02137026 Eh     13.41 kcal/mol

In case the symmetry of your molecule has not been determined correctly
or in case you have a reason to use a different symmetry number we print 
out the resulting rotational entropy values for sn=1,12 :
 --------------------------------------------------------
|  sn= 1 | S(rot)=       0.00557900 Eh      3.50 kcal/mol|
|  sn= 2 | S(rot)=       0.00492454 Eh      3.09 kcal/mol|
|  sn= 3 | S(rot)=       0.00454171 Eh      2.85 kcal/mol|
|  sn= 4 | S(rot)=       0.00427008 Eh      2.68 kcal/mol|
|  sn= 5 | S(rot)=       0.00405940 Eh      2.55 kcal/mol|
|  sn= 6 | S(rot)=       0.00388725 Eh      2.44 kcal/mol|
|  sn= 7 | S(rot)=       0.00374171 Eh      2.35 kcal/mol|
|  sn= 8 | S(rot)=       0.00361563 Eh      2.27 kcal/mol|
|  sn= 9 | S(rot)=       0.00350442 Eh      2.20 kcal/mol|
|  sn=10 | S(rot)=       0.00340494 Eh      2.14 kcal/mol|
|  sn=11 | S(rot)=       0.00331495 Eh      2.08 kcal/mol|
|  sn=12 | S(rot)=       0.00323280 Eh      2.03 kcal/mol|
 --------------------------------------------------------


-------------------
GIBBS FREE ENERGY
-------------------

The Gibbs free energy is G = H - T*S

Total enthalpy                    ...    -75.93445136 Eh 
Total entropy correction          ...     -0.02137026 Eh    -13.41 kcal/mol
-----------------------------------------------------------------------
Final Gibbs free energy         ...    -75.95582162 Eh

For completeness - the Gibbs free energy minus the electronic energy
G-E(el)                           ...      0.00551687 Eh      3.46 kcal/mol


Timings for individual modules:

Sum of individual times         ...        4.538 sec (=   0.076 min)
GTO integral calculation        ...        0.959 sec (=   0.016 min)  21.1 %
SCF iterations                  ...        1.520 sec (=   0.025 min)  33.5 %
SCF Gradient evaluation         ...        0.889 sec (=   0.015 min)  19.6 %
Geometry relaxation             ...        0.080 sec (=   0.001 min)   1.8 %
Analytical frequency calculation...        1.090 sec (=   0.018 min)  24.0 %
                             ****ORCA TERMINATED NORMALLY****
TOTAL RUN TIME: 0 days 0 hours 0 minutes 4 seconds 913 msec
